HEADER
"PSFversion" "1.00"
"Log Generator" "drlLog rev. 1.0"
"Log Time Stamp" "Thu Jun 28 15:48:49 2018"
"simulator" "spectre"
"version" "7.2.0.510.isr18"
"date" "3:48:49 PM, Thur Jun 28, 2018"
"design" ";Spice netlist for an inverter and a capacitor"
"signalNameType" "spectre"
"measdgt" 0
"ingold" 2
"sst2usecolon" 0
TYPE
"analysisInst" STRUCT(
"analysisType" STRING *
"dataFile" STRING *
"format" STRING *
"parent" STRING *
"sweepVariable" ARRAY ( * ) STRING *
"description" STRING *
)
VALUE
"TransientAnalysis-tran" "analysisInst" (
"tran"
"TransientAnalysis.tran"
"PSF"
""
("time")
"Transient Analysis `TransientAnalysis': time = (0 s -> 10 ns)"
) PROP(
"data_type" "swept_scalar"
)

END
