HEADER
"PSFversion" "1.00"
"Log Generator" "drlLog rev. 1.0"
"Log Time Stamp" "Sat Sep 23 14:47:14 2017"
"simulator" "spectre"
"version" "15.1.0.602.isr11"
"date" "2:47:14 PM, Sat Sep 23, 2017"
"design" ";Spice netlist for an inverter and a capacitor"
"signalNameType" "spectre"
"simMode" "Spectre"
"measdgt" 0
"ingold" 2
"sst2usecolon" 0
TYPE
"analysisInst" STRUCT(
"analysisType" STRING *
"dataFile" STRING *
"format" STRING *
"parent" STRING *
"sweepVariable" ARRAY ( * ) STRING *
"description" STRING *
)
VALUE
"Freq-ac" "analysisInst" (
"ac"
"Freq.ac"
"PSF"
""
("freq")
"AC Analysis `Freq': freq = (10 Hz -> 1 GHz)"
) PROP(
"data_type" "swept_scalar"
)

END
