HEADER
"PSFversion" "1.00"
"Log Generator" "drlLog rev. 1.0"
"Log Time Stamp" "Thu Jun 28 10:39:58 2018"
"simulator" "spectre"
"version" "7.2.0.510.isr18"
"date" "10:39:58 AM, Thur Jun 28, 2018"
"design" ";Spice netlist for an inverter and a capacitor"
"signalNameType" "spectre"
"measdgt" 0
"ingold" 2
"sst2usecolon" 0
TYPE
"analysisInst" STRUCT(
"analysisType" STRING *
"dataFile" STRING *
"format" STRING *
"parent" STRING *
"sweepVariable" ARRAY ( * ) STRING *
"description" STRING *
)
VALUE
"Freq-ac" "analysisInst" (
"ac"
"Freq.ac"
"PSF"
""
("freq")
"AC Analysis `Freq': freq = (10 Hz -> 1 GHz)"
) PROP(
"data_type" "swept_scalar"
)

END
